 &FCI NORB=  16,NELEC=16,MS2=0,
  ORBSYM=0,0,0,0,0,0,0,0,0,0,0,0,0,0,0,0
  ISYM=1,
 &END
  8.000000000000000    1    1    1    1  
  8.000000000000000    2    2    2    2  
  8.000000000000000    3    3    3    3  
  8.000000000000000    4    4    4    4  
  8.000000000000000    5    5    5    5  
  8.000000000000000    6    6    6    6  
  8.000000000000000    7    7    7    7  
  8.000000000000000    8    8    8    8  
  8.000000000000000    9    9    9    9  
  8.000000000000000    10   10   10   10 
  8.000000000000000    11   11   11   11 
  8.000000000000000    12   12   12   12 
  8.000000000000000    13   13   13   13
  8.000000000000000    14   14   14   14
  8.000000000000000    15   15   15   15
  8.000000000000000    16   16   16   16
 -1.000000000000000    1    2    0    0
 -1.000000000000000    2    3    0    0
 -1.000000000000000    3    4    0    0
 -1.000000000000000    4    5    0    0
 -1.000000000000000    5    6    0    0
 -1.000000000000000    6    7    0    0
 -1.000000000000000    7    8    0    0
 -1.000000000000000    8    9    0    0
 -1.000000000000000    9    10   0    0
 -1.000000000000000    10   11   0    0
 -1.000000000000000    11   12   0    0
 -1.000000000000000    12   13   0    0
 -1.000000000000000    13   14   0    0
 -1.000000000000000    14   15   0    0
 -1.000000000000000    15   16   0    0
  0.000000000000000    0    0    0    0
